+ 0.2 1 0 ping 64 ------- 0 1.0 2.0 -1 0
- 0.2 1 0 ping 64 ------- 0 1.0 2.0 -1 0
+ 0.2 2 0 ping 64 ------- 0 2.0 1.0 -1 1
- 0.2 2 0 ping 64 ------- 0 2.0 1.0 -1 1
+ 0.2 3 0 ping 64 ------- 0 3.0 4.0 -1 2
- 0.2 3 0 ping 64 ------- 0 3.0 4.0 -1 2
+ 0.2 4 0 ping 64 ------- 0 4.0 3.0 -1 3
- 0.2 4 0 ping 64 ------- 0 4.0 3.0 -1 3
+ 0.2 5 0 ping 64 ------- 0 5.0 6.0 -1 4
- 0.2 5 0 ping 64 ------- 0 5.0 6.0 -1 4
+ 0.2 6 0 ping 64 ------- 0 6.0 5.0 -1 5
- 0.2 6 0 ping 64 ------- 0 6.0 5.0 -1 5
r 0.210512 1 0 ping 64 ------- 0 1.0 2.0 -1 0
+ 0.210512 0 2 ping 64 ------- 0 1.0 2.0 -1 0
- 0.210512 0 2 ping 64 ------- 0 1.0 2.0 -1 0
r 0.210512 2 0 ping 64 ------- 0 2.0 1.0 -1 1
+ 0.210512 0 1 ping 64 ------- 0 2.0 1.0 -1 1
- 0.210512 0 1 ping 64 ------- 0 2.0 1.0 -1 1
r 0.210512 3 0 ping 64 ------- 0 3.0 4.0 -1 2
+ 0.210512 0 4 ping 64 ------- 0 3.0 4.0 -1 2
- 0.210512 0 4 ping 64 ------- 0 3.0 4.0 -1 2
r 0.210512 4 0 ping 64 ------- 0 4.0 3.0 -1 3
+ 0.210512 0 3 ping 64 ------- 0 4.0 3.0 -1 3
- 0.210512 0 3 ping 64 ------- 0 4.0 3.0 -1 3
r 0.210512 5 0 ping 64 ------- 0 5.0 6.0 -1 4
+ 0.210512 0 6 ping 64 ------- 0 5.0 6.0 -1 4
- 0.210512 0 6 ping 64 ------- 0 5.0 6.0 -1 4
r 0.210512 6 0 ping 64 ------- 0 6.0 5.0 -1 5
+ 0.210512 0 5 ping 64 ------- 0 6.0 5.0 -1 5
d 0.210512 0 5 ping 64 ------- 0 6.0 5.0 -1 5
r 0.221024 0 2 ping 64 ------- 0 1.0 2.0 -1 0
+ 0.221024 2 0 ping 64 ------- 0 2.0 1.0 -1 6
- 0.221024 2 0 ping 64 ------- 0 2.0 1.0 -1 6
r 0.221024 0 1 ping 64 ------- 0 2.0 1.0 -1 1
+ 0.221024 1 0 ping 64 ------- 0 1.0 2.0 -1 7
- 0.221024 1 0 ping 64 ------- 0 1.0 2.0 -1 7
r 0.221024 0 4 ping 64 ------- 0 3.0 4.0 -1 2
+ 0.221024 4 0 ping 64 ------- 0 4.0 3.0 -1 8
- 0.221024 4 0 ping 64 ------- 0 4.0 3.0 -1 8
r 0.221024 0 3 ping 64 ------- 0 4.0 3.0 -1 3
+ 0.221024 3 0 ping 64 ------- 0 3.0 4.0 -1 9
- 0.221024 3 0 ping 64 ------- 0 3.0 4.0 -1 9
r 0.221024 0 6 ping 64 ------- 0 5.0 6.0 -1 4
+ 0.221024 6 0 ping 64 ------- 0 6.0 5.0 -1 10
- 0.221024 6 0 ping 64 ------- 0 6.0 5.0 -1 10
r 0.231536 2 0 ping 64 ------- 0 2.0 1.0 -1 6
+ 0.231536 0 1 ping 64 ------- 0 2.0 1.0 -1 6
- 0.231536 0 1 ping 64 ------- 0 2.0 1.0 -1 6
r 0.231536 1 0 ping 64 ------- 0 1.0 2.0 -1 7
+ 0.231536 0 2 ping 64 ------- 0 1.0 2.0 -1 7
- 0.231536 0 2 ping 64 ------- 0 1.0 2.0 -1 7
r 0.231536 4 0 ping 64 ------- 0 4.0 3.0 -1 8
+ 0.231536 0 3 ping 64 ------- 0 4.0 3.0 -1 8
- 0.231536 0 3 ping 64 ------- 0 4.0 3.0 -1 8
r 0.231536 3 0 ping 64 ------- 0 3.0 4.0 -1 9
+ 0.231536 0 4 ping 64 ------- 0 3.0 4.0 -1 9
- 0.231536 0 4 ping 64 ------- 0 3.0 4.0 -1 9
r 0.231536 6 0 ping 64 ------- 0 6.0 5.0 -1 10
+ 0.231536 0 5 ping 64 ------- 0 6.0 5.0 -1 10
d 0.231536 0 5 ping 64 ------- 0 6.0 5.0 -1 10
r 0.242048 0 1 ping 64 ------- 0 2.0 1.0 -1 6
r 0.242048 0 2 ping 64 ------- 0 1.0 2.0 -1 7
r 0.242048 0 3 ping 64 ------- 0 4.0 3.0 -1 8
r 0.242048 0 4 ping 64 ------- 0 3.0 4.0 -1 9
